<?xml version="1.0" encoding="UTF-8"?>

<!-- generated on 2026-04-17T08:25:47.868422+05:30 by Eclipse SUMO sumo 1.26.0
<sumoConfiguration xmlns:xsi="http://www.w3.org/2001/XMLSchema-instance" xsi:noNamespaceSchemaLocation="http://sumo.dlr.de/xsd/sumoConfiguration.xsd">

    <input>
        <net-file value="simulation/mangalore.net.xml"/>
        <route-files value="simulation/routes.xml"/>
    </input>

    <output>
        <summary-output value="simulation/output/summary.xml"/>
        <tripinfo-output value="simulation/output/tripinfo.xml"/>
    </output>

    <time>
        <begin value="0"/>
        <end value="3600"/>
        <step-length value="1"/>
    </time>

    <processing>
        <ignore-route-errors value="true"/>
    </processing>

    <report>
        <no-warnings value="true"/>
        <no-step-log value="true"/>
    </report>

    <traci_server>
        <remote-port value="58118"/>
    </traci_server>

</sumoConfiguration>
-->

<tripinfos xmlns:xsi="http://www.w3.org/2001/XMLSchema-instance" xsi:noNamespaceSchemaLocation="http://sumo.dlr.de/xsd/tripinfo_file.xsd">
    <tripinfo id="14" depart="28.00" departLane="27189529#1_0" departPos="5.10" departSpeed="0.00" departDelay="0.00" arrival="107.00" arrivalLane="131709936#1_0" arrivalPos="168.37" arrivalSpeed="26.76" duration="79.00" routeLength="1063.48" waitingTime="0.00" waitingCount="0" stopTime="0.00" timeLoss="23.42" rerouteNo="0" devices="tripinfo_14" vType="DEFAULT_VEHTYPE" speedFactor="0.99" vaporized=""/>
    <tripinfo id="4" depart="8.00" departLane="-380332370#0_0" departPos="5.10" departSpeed="0.00" departDelay="0.00" arrival="114.00" arrivalLane="-1047664592#1_0" arrivalPos="10.90" arrivalSpeed="10.16" duration="106.00" routeLength="1760.61" waitingTime="0.00" waitingCount="0" stopTime="0.00" timeLoss="21.20" rerouteNo="0" devices="tripinfo_4" vType="DEFAULT_VEHTYPE" speedFactor="1.03" vaporized=""/>
    <tripinfo id="31" depart="62.00" departLane="1084027865_0" departPos="5.10" departSpeed="0.00" departDelay="0.00" arrival="126.00" arrivalLane="1369161859#1_0" arrivalPos="151.92" arrivalSpeed="25.20" duration="64.00" routeLength="781.69" waitingTime="0.00" waitingCount="0" stopTime="0.00" timeLoss="25.83" rerouteNo="0" devices="tripinfo_31" vType="DEFAULT_VEHTYPE" speedFactor="1.15" vaporized=""/>
    <tripinfo id="33" depart="66.00" departLane="-1382287867_0" departPos="5.10" departSpeed="0.00" departDelay="0.00" arrival="140.00" arrivalLane="-1047664601#3_0" arrivalPos="36.14" arrivalSpeed="15.48" duration="74.00" routeLength="859.29" waitingTime="0.00" waitingCount="0" stopTime="0.00" timeLoss="24.88" rerouteNo="0" devices="tripinfo_33" vType="DEFAULT_VEHTYPE" speedFactor="1.17" vaporized=""/>
    <tripinfo id="9" depart="18.00" departLane="260127622#2_0" departPos="1.68" departSpeed="0.00" departDelay="0.00" arrival="141.00" arrivalLane="-1042192053#2_0" arrivalPos="18.44" arrivalSpeed="11.79" duration="123.00" routeLength="1712.87" waitingTime="0.00" waitingCount="0" stopTime="0.00" timeLoss="18.92" rerouteNo="0" devices="tripinfo_9" vType="DEFAULT_VEHTYPE" speedFactor="0.86" vaporized=""/>
    <tripinfo id="2" depart="4.00" departLane="156015647#3_0" departPos="5.10" departSpeed="0.00" departDelay="0.00" arrival="145.00" arrivalLane="1367397095_0" arrivalPos="0.20" arrivalSpeed="5.31" duration="141.00" routeLength="1778.90" waitingTime="0.00" waitingCount="0" stopTime="0.00" timeLoss="35.19" rerouteNo="0" devices="tripinfo_2" vType="DEFAULT_VEHTYPE" speedFactor="1.01" vaporized=""/>
    <tripinfo id="21" depart="42.00" departLane="-1381046469_0" departPos="5.10" departSpeed="0.00" departDelay="0.00" arrival="154.00" arrivalLane="-26299202#1_0" arrivalPos="65.80" arrivalSpeed="18.50" duration="112.00" routeLength="1185.15" waitingTime="0.00" waitingCount="0" stopTime="0.00" timeLoss="31.52" rerouteNo="0" devices="tripinfo_21" vType="DEFAULT_VEHTYPE" speedFactor="1.01" vaporized=""/>
    <tripinfo id="62" depart="124.00" departLane="-1006861078#1_0" departPos="5.10" departSpeed="0.00" departDelay="0.00" arrival="154.00" arrivalLane="-28069658#1_0" arrivalPos="36.54" arrivalSpeed="27.89" duration="30.00" routeLength="471.67" waitingTime="0.00" waitingCount="0" stopTime="0.00" timeLoss="7.45" rerouteNo="0" devices="tripinfo_62" vType="DEFAULT_VEHTYPE" speedFactor="1.02" vaporized=""/>
    <tripinfo id="7" depart="14.00" departLane="132056617_0" departPos="5.10" departSpeed="0.00" departDelay="0.00" arrival="165.00" arrivalLane="1092272096#1_0" arrivalPos="44.21" arrivalSpeed="11.25" duration="151.00" routeLength="1872.91" waitingTime="0.00" waitingCount="0" stopTime="0.00" timeLoss="35.37" rerouteNo="0" devices="tripinfo_7" vType="DEFAULT_VEHTYPE" speedFactor="0.89" vaporized=""/>
    <tripinfo id="1" depart="2.00" departLane="-157709829_0" departPos="5.10" departSpeed="0.00" departDelay="0.00" arrival="167.00" arrivalLane="-156020180#4_0" arrivalPos="96.49" arrivalSpeed="20.42" duration="165.00" routeLength="2061.46" waitingTime="0.00" waitingCount="0" stopTime="0.00" timeLoss="34.48" rerouteNo="0" devices="tripinfo_1" vType="DEFAULT_VEHTYPE" speedFactor="0.94" vaporized=""/>
    <tripinfo id="36" depart="72.00" departLane="28069359#1_0" departPos="5.10" departSpeed="0.00" departDelay="0.00" arrival="169.00" arrivalLane="-27191056#0_0" arrivalPos="293.93" arrivalSpeed="21.51" duration="97.00" routeLength="1330.66" waitingTime="0.00" waitingCount="0" stopTime="0.00" timeLoss="30.34" rerouteNo="0" devices="tripinfo_36" vType="DEFAULT_VEHTYPE" speedFactor="0.97" vaporized=""/>
    <tripinfo id="29" depart="58.00" departLane="-132056616#0_0" departPos="5.10" departSpeed="0.00" departDelay="0.00" arrival="172.00" arrivalLane="-380332370#2_0" arrivalPos="60.78" arrivalSpeed="15.70" duration="114.00" routeLength="1875.04" waitingTime="0.00" waitingCount="0" stopTime="0.00" timeLoss="21.63" rerouteNo="0" devices="tripinfo_29" vType="DEFAULT_VEHTYPE" speedFactor="0.93" vaporized=""/>
    <tripinfo id="12" depart="24.00" departLane="491608639_0" departPos="5.10" departSpeed="0.00" departDelay="0.00" arrival="178.00" arrivalLane="-319705588#1_0" arrivalPos="30.80" arrivalSpeed="13.78" duration="154.00" routeLength="2194.69" waitingTime="0.00" waitingCount="0" stopTime="0.00" timeLoss="41.21" rerouteNo="0" devices="tripinfo_12" vType="DEFAULT_VEHTYPE" speedFactor="1.05" vaporized=""/>
    <tripinfo id="46" depart="92.00" departLane="219223675_0" departPos="5.10" departSpeed="0.00" departDelay="0.00" arrival="182.00" arrivalLane="-98623848#3_0" arrivalPos="80.00" arrivalSpeed="16.90" duration="90.00" routeLength="1171.91" waitingTime="0.00" waitingCount="0" stopTime="0.00" timeLoss="19.98" rerouteNo="0" devices="tripinfo_46" vType="DEFAULT_VEHTYPE" speedFactor="1.00" vaporized=""/>
    <tripinfo id="3" depart="6.00" departLane="318725571#3_0" departPos="5.10" departSpeed="0.00" departDelay="0.00" arrival="188.00" arrivalLane="-1095083520_0" arrivalPos="221.23" arrivalSpeed="14.13" duration="182.00" routeLength="2972.92" waitingTime="0.00" waitingCount="0" stopTime="0.00" timeLoss="47.56" rerouteNo="0" devices="tripinfo_3" vType="DEFAULT_VEHTYPE" speedFactor="1.08" vaporized=""/>
    <tripinfo id="28" depart="56.00" departLane="-132061364_0" departPos="5.10" departSpeed="0.00" departDelay="0.00" arrival="191.00" arrivalLane="156015651#2_0" arrivalPos="66.20" arrivalSpeed="15.06" duration="135.00" routeLength="2579.58" waitingTime="0.00" waitingCount="0" stopTime="0.00" timeLoss="31.13" rerouteNo="0" devices="tripinfo_28" vType="DEFAULT_VEHTYPE" speedFactor="1.13" vaporized=""/>
    <tripinfo id="8" depart="16.00" departLane="-1368744193_0" departPos="5.10" departSpeed="0.00" departDelay="0.00" arrival="195.00" arrivalLane="1219040317_0" arrivalPos="19.81" arrivalSpeed="12.05" duration="179.00" routeLength="2394.30" waitingTime="0.00" waitingCount="0" stopTime="0.00" timeLoss="42.59" rerouteNo="0" devices="tripinfo_8" vType="DEFAULT_VEHTYPE" speedFactor="0.94" vaporized=""/>
    <tripinfo id="27" depart="54.00" departLane="132056615#4_0" departPos="5.10" departSpeed="0.00" departDelay="0.00" arrival="198.00" arrivalLane="131993097#2_0" arrivalPos="127.93" arrivalSpeed="21.04" duration="144.00" routeLength="2743.02" waitingTime="0.00" waitingCount="0" stopTime="0.00" timeLoss="26.75" rerouteNo="0" devices="tripinfo_27" vType="DEFAULT_VEHTYPE" speedFactor="0.95" vaporized=""/>
    <tripinfo id="5" depart="10.00" departLane="-1368317323_0" departPos="5.10" departSpeed="0.00" departDelay="0.00" arrival="199.00" arrivalLane="1056588361#2_0" arrivalPos="119.36" arrivalSpeed="17.96" duration="189.00" routeLength="2866.00" waitingTime="0.00" waitingCount="0" stopTime="0.00" timeLoss="25.59" rerouteNo="0" devices="tripinfo_5" vType="DEFAULT_VEHTYPE" speedFactor="0.83" vaporized=""/>
    <tripinfo id="10" depart="20.00" departLane="260127621#13_0" departPos="5.10" departSpeed="0.00" departDelay="0.00" arrival="206.00" arrivalLane="1382479121#1_0" arrivalPos="44.16" arrivalSpeed="29.04" duration="186.00" routeLength="3045.57" waitingTime="0.00" waitingCount="0" stopTime="0.00" timeLoss="35.97" rerouteNo="0" devices="tripinfo_10" vType="DEFAULT_VEHTYPE" speedFactor="1.09" vaporized=""/>
    <tripinfo id="11" depart="22.00" departLane="-26514974#2_0" departPos="5.10" departSpeed="0.00" departDelay="0.00" arrival="208.00" arrivalLane="-132070843#3_0" arrivalPos="75.96" arrivalSpeed="13.79" duration="186.00" routeLength="2828.32" waitingTime="3.00" waitingCount="1" stopTime="0.00" timeLoss="55.58" rerouteNo="0" devices="tripinfo_11" vType="DEFAULT_VEHTYPE" speedFactor="1.03" vaporized=""/>
    <tripinfo id="71" depart="142.00" departLane="-156020181#2_0" departPos="5.10" departSpeed="0.00" departDelay="0.00" arrival="208.00" arrivalLane="28069658#7_0" arrivalPos="12.94" arrivalSpeed="26.06" duration="66.00" routeLength="1050.89" waitingTime="0.00" waitingCount="0" stopTime="0.00" timeLoss="18.39" rerouteNo="0" devices="tripinfo_71" vType="DEFAULT_VEHTYPE" speedFactor="0.97" vaporized=""/>
    <tripinfo id="13" depart="26.00" departLane="-1087191179_0" departPos="5.10" departSpeed="0.00" departDelay="0.00" arrival="211.00" arrivalLane="-1212935888_0" arrivalPos="137.18" arrivalSpeed="14.33" duration="185.00" routeLength="2768.32" waitingTime="0.00" waitingCount="0" stopTime="0.00" timeLoss="60.50" rerouteNo="0" devices="tripinfo_13" vType="DEFAULT_VEHTYPE" speedFactor="1.12" vaporized=""/>
    <tripinfo id="20" depart="40.00" departLane="1368365880_0" departPos="5.10" departSpeed="0.00" departDelay="0.00" arrival="215.00" arrivalLane="-1050395525_0" arrivalPos="242.54" arrivalSpeed="13.94" duration="175.00" routeLength="3097.82" waitingTime="0.00" waitingCount="0" stopTime="0.00" timeLoss="35.05" rerouteNo="0" devices="tripinfo_20" vType="DEFAULT_VEHTYPE" speedFactor="1.02" vaporized=""/>
    <tripinfo id="37" depart="74.00" departLane="132061357#3_0" departPos="5.10" departSpeed="0.00" departDelay="0.00" arrival="218.00" arrivalLane="-518504798_0" arrivalPos="37.30" arrivalSpeed="14.44" duration="144.00" routeLength="2670.44" waitingTime="4.00" waitingCount="1" stopTime="0.00" timeLoss="44.90" rerouteNo="0" devices="tripinfo_37" vType="DEFAULT_VEHTYPE" speedFactor="1.18" vaporized=""/>
    <tripinfo id="39" depart="78.00" departLane="-156020181#1_0" departPos="5.10" departSpeed="0.00" departDelay="0.00" arrival="219.00" arrivalLane="-184353228_0" arrivalPos="20.94" arrivalSpeed="9.56" duration="141.00" routeLength="1767.17" waitingTime="0.00" waitingCount="0" stopTime="0.00" timeLoss="41.95" rerouteNo="0" devices="tripinfo_39" vType="DEFAULT_VEHTYPE" speedFactor="0.90" vaporized=""/>
    <tripinfo id="55" depart="110.00" departLane="28069087#2_0" departPos="5.10" departSpeed="0.00" departDelay="0.00" arrival="227.00" arrivalLane="-227167822#0_0" arrivalPos="154.48" arrivalSpeed="13.14" duration="117.00" routeLength="1511.80" waitingTime="0.00" waitingCount="0" stopTime="0.00" timeLoss="26.54" rerouteNo="0" devices="tripinfo_55" vType="DEFAULT_VEHTYPE" speedFactor="1.00" vaporized=""/>
    <tripinfo id="41" depart="82.00" departLane="1189020225#1_0" departPos="5.10" departSpeed="0.00" departDelay="0.00" arrival="231.00" arrivalLane="322815726#1_0" arrivalPos="257.48" arrivalSpeed="12.67" duration="149.00" routeLength="2102.57" waitingTime="0.00" waitingCount="0" stopTime="0.00" timeLoss="30.63" rerouteNo="0" devices="tripinfo_41" vType="DEFAULT_VEHTYPE" speedFactor="0.96" vaporized=""/>
    <tripinfo id="61" depart="122.00" departLane="184750315#0_0" departPos="5.10" departSpeed="0.00" departDelay="0.00" arrival="232.00" arrivalLane="1085269951#0_0" arrivalPos="63.58" arrivalSpeed="14.95" duration="110.00" routeLength="2169.90" waitingTime="0.00" waitingCount="0" stopTime="0.00" timeLoss="27.96" rerouteNo="0" devices="tripinfo_61" vType="DEFAULT_VEHTYPE" speedFactor="1.12" vaporized=""/>
    <tripinfo id="6" depart="12.00" departLane="-1047092720_0" departPos="5.10" departSpeed="0.00" departDelay="0.00" arrival="239.00" arrivalLane="-1380260091_0" arrivalPos="108.04" arrivalSpeed="13.46" duration="227.00" routeLength="3190.13" waitingTime="0.00" waitingCount="0" stopTime="0.00" timeLoss="40.79" rerouteNo="0" devices="tripinfo_6" vType="DEFAULT_VEHTYPE" speedFactor="1.05" vaporized=""/>
    <tripinfo id="43" depart="86.00" departLane="98623848#4_0" departPos="5.10" departSpeed="0.00" departDelay="0.00" arrival="243.00" arrivalLane="1057796823_0" arrivalPos="80.03" arrivalSpeed="13.41" duration="157.00" routeLength="2588.40" waitingTime="0.00" waitingCount="0" stopTime="0.00" timeLoss="24.70" rerouteNo="0" devices="tripinfo_43" vType="DEFAULT_VEHTYPE" speedFactor="1.04" vaporized=""/>
    <tripinfo id="19" depart="38.00" departLane="27191050#12_0" departPos="0.24" departSpeed="0.00" departDelay="0.00" arrival="247.00" arrivalLane="1215015577#0_0" arrivalPos="127.87" arrivalSpeed="15.73" duration="209.00" routeLength="3938.96" waitingTime="1.00" waitingCount="1" stopTime="0.00" timeLoss="55.30" rerouteNo="0" devices="tripinfo_19" vType="DEFAULT_VEHTYPE" speedFactor="1.16" vaporized=""/>
    <tripinfo id="68" depart="139.00" departLane="-1084004609#1_0" departPos="5.10" departSpeed="0.00" departDelay="3.00" arrival="247.00" arrivalLane="163382324#2_0" arrivalPos="19.54" arrivalSpeed="13.32" duration="108.00" routeLength="1316.88" waitingTime="0.00" waitingCount="0" stopTime="0.00" timeLoss="31.04" rerouteNo="0" devices="tripinfo_68" vType="DEFAULT_VEHTYPE" speedFactor="1.04" vaporized=""/>
    <tripinfo id="16" depart="32.00" departLane="1053954500#2_0" departPos="5.10" departSpeed="0.00" departDelay="0.00" arrival="252.00" arrivalLane="903009071#4_0" arrivalPos="16.30" arrivalSpeed="9.56" duration="220.00" routeLength="3283.52" waitingTime="2.00" waitingCount="1" stopTime="0.00" timeLoss="47.19" rerouteNo="0" devices="tripinfo_16" vType="DEFAULT_VEHTYPE" speedFactor="0.88" vaporized=""/>
    <tripinfo id="51" depart="102.00" departLane="132071728_0" departPos="5.10" departSpeed="0.00" departDelay="0.00" arrival="252.00" arrivalLane="1088376790#0_0" arrivalPos="59.33" arrivalSpeed="15.49" duration="150.00" routeLength="2412.87" waitingTime="0.00" waitingCount="0" stopTime="0.00" timeLoss="36.23" rerouteNo="0" devices="tripinfo_51" vType="DEFAULT_VEHTYPE" speedFactor="1.17" vaporized=""/>
    <tripinfo id="52" depart="104.00" departLane="-156020181#8_0" departPos="5.10" departSpeed="0.00" departDelay="0.00" arrival="253.00" arrivalLane="132070862#0_0" arrivalPos="57.21" arrivalSpeed="12.83" duration="149.00" routeLength="2698.58" waitingTime="0.00" waitingCount="0" stopTime="0.00" timeLoss="34.09" rerouteNo="0" devices="tripinfo_52" vType="DEFAULT_VEHTYPE" speedFactor="1.02" vaporized=""/>
    <tripinfo id="44" depart="88.00" departLane="-1085586816#0_0" departPos="5.10" departSpeed="0.00" departDelay="0.00" arrival="258.00" arrivalLane="-1053954488#0_0" arrivalPos="26.29" arrivalSpeed="14.04" duration="170.00" routeLength="2722.88" waitingTime="0.00" waitingCount="0" stopTime="0.00" timeLoss="41.17" rerouteNo="0" devices="tripinfo_44" vType="DEFAULT_VEHTYPE" speedFactor="1.04" vaporized=""/>
    <tripinfo id="56" depart="112.00" departLane="1046908818_0" departPos="5.10" departSpeed="0.00" departDelay="0.00" arrival="258.00" arrivalLane="-132077531#2_0" arrivalPos="10.93" arrivalSpeed="11.78" duration="146.00" routeLength="1866.66" waitingTime="0.00" waitingCount="0" stopTime="0.00" timeLoss="30.72" rerouteNo="0" devices="tripinfo_56" vType="DEFAULT_VEHTYPE" speedFactor="0.90" vaporized=""/>
    <tripinfo id="18" depart="36.00" departLane="26299204#0_0" departPos="5.10" departSpeed="0.00" departDelay="0.00" arrival="259.00" arrivalLane="132056615#4_0" arrivalPos="18.15" arrivalSpeed="8.65" duration="223.00" routeLength="3982.84" waitingTime="1.00" waitingCount="1" stopTime="0.00" timeLoss="52.89" rerouteNo="0" devices="tripinfo_18" vType="DEFAULT_VEHTYPE" speedFactor="0.94" vaporized=""/>
    <tripinfo id="103" depart="206.00" departLane="-325440938#1_0" departPos="5.10" departSpeed="0.00" departDelay="0.00" arrival="266.00" arrivalLane="-1084004611#0_0" arrivalPos="102.91" arrivalSpeed="12.21" duration="60.00" routeLength="533.21" waitingTime="0.00" waitingCount="0" stopTime="0.00" timeLoss="16.06" rerouteNo="0" devices="tripinfo_103" vType="DEFAULT_VEHTYPE" speedFactor="0.95" vaporized=""/>
    <tripinfo id="78" depart="156.00" departLane="-26514959#9_0" departPos="5.10" departSpeed="0.00" departDelay="0.00" arrival="268.00" arrivalLane="1218994330#3_0" arrivalPos="65.45" arrivalSpeed="13.29" duration="112.00" routeLength="1565.71" waitingTime="0.00" waitingCount="0" stopTime="0.00" timeLoss="21.46" rerouteNo="0" devices="tripinfo_78" vType="DEFAULT_VEHTYPE" speedFactor="1.01" vaporized=""/>
    <tripinfo id="40" depart="80.00" departLane="1085250077#0_0" departPos="5.10" departSpeed="0.00" departDelay="0.00" arrival="270.00" arrivalLane="-225803543#1_0" arrivalPos="158.40" arrivalSpeed="14.26" duration="190.00" routeLength="3365.89" waitingTime="0.00" waitingCount="0" stopTime="0.00" timeLoss="42.61" rerouteNo="0" devices="tripinfo_40" vType="DEFAULT_VEHTYPE" speedFactor="1.03" vaporized=""/>
    <tripinfo id="63" depart="126.00" departLane="-1046958047#0_0" departPos="5.10" departSpeed="0.00" departDelay="0.00" arrival="270.00" arrivalLane="355391677#2_0" arrivalPos="73.56" arrivalSpeed="12.50" duration="144.00" routeLength="2579.65" waitingTime="0.00" waitingCount="0" stopTime="0.00" timeLoss="26.99" rerouteNo="0" devices="tripinfo_63" vType="DEFAULT_VEHTYPE" speedFactor="0.99" vaporized=""/>
    <tripinfo id="0" depart="0.00" departLane="131993103#2_0" departPos="5.10" departSpeed="0.00" departDelay="0.00" arrival="275.00" arrivalLane="-1047437082_0" arrivalPos="283.29" arrivalSpeed="13.79" duration="275.00" routeLength="5221.80" waitingTime="0.00" waitingCount="0" stopTime="0.00" timeLoss="63.39" rerouteNo="0" devices="tripinfo_0" vType="DEFAULT_VEHTYPE" speedFactor="1.06" vaporized=""/>
    <tripinfo id="45" depart="90.00" departLane="-117011796#5_0" departPos="5.10" departSpeed="0.00" departDelay="0.00" arrival="275.00" arrivalLane="132061363#1_0" arrivalPos="163.60" arrivalSpeed="14.19" duration="185.00" routeLength="3341.24" waitingTime="0.00" waitingCount="0" stopTime="0.00" timeLoss="37.82" rerouteNo="0" devices="tripinfo_45" vType="DEFAULT_VEHTYPE" speedFactor="1.09" vaporized=""/>
    <tripinfo id="47" depart="94.00" departLane="-1057266600_0" departPos="0.20" departSpeed="0.00" departDelay="0.00" arrival="280.00" arrivalLane="-41379125_0" arrivalPos="75.55" arrivalSpeed="12.43" duration="186.00" routeLength="2965.68" waitingTime="0.00" waitingCount="0" stopTime="0.00" timeLoss="35.58" rerouteNo="0" devices="tripinfo_47" vType="DEFAULT_VEHTYPE" speedFactor="0.90" vaporized=""/>
    <tripinfo id="30" depart="60.00" departLane="924066403#0_0" departPos="5.10" departSpeed="0.00" departDelay="0.00" arrival="283.00" arrivalLane="132070861#0_0" arrivalPos="42.43" arrivalSpeed="15.66" duration="223.00" routeLength="4217.13" waitingTime="0.00" waitingCount="0" stopTime="0.00" timeLoss="72.62" rerouteNo="0" devices="tripinfo_30" vType="DEFAULT_VEHTYPE" speedFactor="1.18" vaporized=""/>
    <tripinfo id="84" depart="168.00" departLane="-1358531924_0" departPos="5.10" departSpeed="0.00" departDelay="0.00" arrival="285.00" arrivalLane="-131993095#3_0" arrivalPos="146.54" arrivalSpeed="24.31" duration="117.00" routeLength="1560.91" waitingTime="0.00" waitingCount="0" stopTime="0.00" timeLoss="27.49" rerouteNo="0" devices="tripinfo_84" vType="DEFAULT_VEHTYPE" speedFactor="1.15" vaporized=""/>
    <tripinfo id="101" depart="202.00" departLane="27189533_0" departPos="5.10" departSpeed="0.00" departDelay="0.00" arrival="286.00" arrivalLane="-132070863#5_0" arrivalPos="18.37" arrivalSpeed="10.47" duration="84.00" routeLength="1021.32" waitingTime="0.00" waitingCount="0" stopTime="0.00" timeLoss="21.89" rerouteNo="0" devices="tripinfo_101" vType="DEFAULT_VEHTYPE" speedFactor="0.96" vaporized=""/>
    <tripinfo id="97" depart="194.00" departLane="-898458145#0_0" departPos="5.10" departSpeed="0.00" departDelay="0.00" arrival="291.00" arrivalLane="27191213#1_0" arrivalPos="0.20" arrivalSpeed="2.81" duration="97.00" routeLength="1237.21" waitingTime="2.00" waitingCount="1" stopTime="0.00" timeLoss="27.20" rerouteNo="0" devices="tripinfo_97" vType="DEFAULT_VEHTYPE" speedFactor="0.91" vaporized=""/>
    <tripinfo id="58" depart="116.00" departLane="-200101184#0_0" departPos="5.10" departSpeed="0.00" departDelay="0.00" arrival="294.00" arrivalLane="132070859#1_0" arrivalPos="97.22" arrivalSpeed="13.55" duration="178.00" routeLength="2231.77" waitingTime="2.00" waitingCount="1" stopTime="0.00" timeLoss="62.02" rerouteNo="0" devices="tripinfo_58" vType="DEFAULT_VEHTYPE" speedFactor="1.02" vaporized=""/>
    <tripinfo id="50" depart="100.00" departLane="-1042208479#1_0" departPos="5.10" departSpeed="0.00" departDelay="0.00" arrival="299.00" arrivalLane="1467599776_0" arrivalPos="39.16" arrivalSpeed="10.84" duration="199.00" routeLength="3572.74" waitingTime="0.00" waitingCount="0" stopTime="0.00" timeLoss="24.34" rerouteNo="0" devices="tripinfo_50" vType="DEFAULT_VEHTYPE" speedFactor="0.85" vaporized=""/>
    <tripinfo id="90" depart="180.00" departLane="143861138_0" departPos="5.10" departSpeed="0.00" departDelay="0.00" arrival="299.00" arrivalLane="1358531924_0" arrivalPos="60.79" arrivalSpeed="13.56" duration="119.00" routeLength="1293.59" waitingTime="0.00" waitingCount="0" stopTime="0.00" timeLoss="23.19" rerouteNo="0" devices="tripinfo_90" vType="DEFAULT_VEHTYPE" speedFactor="1.02" vaporized=""/>
    <tripinfo id="22" depart="44.00" departLane="-1084027864#1_0" departPos="5.10" departSpeed="0.00" departDelay="0.00" arrival="300.00" arrivalLane="-156032781#0_0" arrivalPos="60.42" arrivalSpeed="13.11" duration="256.00" routeLength="3980.97" waitingTime="0.00" waitingCount="0" stopTime="0.00" timeLoss="66.50" rerouteNo="0" devices="tripinfo_22" vType="DEFAULT_VEHTYPE" speedFactor="0.97" vaporized=""/>
    <tripinfo id="23" depart="46.00" departLane="-1092272097_0" departPos="5.10" departSpeed="0.00" departDelay="0.00" arrival="300.00" arrivalLane="-260127622#6_0" arrivalPos="36.37" arrivalSpeed="11.67" duration="254.00" routeLength="4285.86" waitingTime="0.00" waitingCount="0" stopTime="0.00" timeLoss="43.36" rerouteNo="0" devices="tripinfo_23" vType="DEFAULT_VEHTYPE" speedFactor="0.89" vaporized=""/>
    <tripinfo id="34" depart="68.00" departLane="-260127621#4_0" departPos="5.10" departSpeed="0.00" departDelay="0.00" arrival="301.00" arrivalLane="-232973375#4_0" arrivalPos="38.03" arrivalSpeed="12.92" duration="233.00" routeLength="3173.38" waitingTime="0.00" waitingCount="0" stopTime="0.00" timeLoss="40.96" rerouteNo="0" devices="tripinfo_34" vType="DEFAULT_VEHTYPE" speedFactor="0.99" vaporized=""/>
    <tripinfo id="72" depart="144.00" departLane="-380332370#5_0" departPos="5.10" departSpeed="0.00" departDelay="0.00" arrival="307.00" arrivalLane="-156015651#0_0" arrivalPos="30.83" arrivalSpeed="10.73" duration="163.00" routeLength="2669.13" waitingTime="0.00" waitingCount="0" stopTime="0.00" timeLoss="30.81" rerouteNo="0" devices="tripinfo_72" vType="DEFAULT_VEHTYPE" speedFactor="0.94" vaporized=""/>
    <tripinfo id="54" depart="108.00" departLane="-924061536_0" departPos="5.10" departSpeed="0.00" departDelay="0.00" arrival="313.00" arrivalLane="518504797#1_0" arrivalPos="98.25" arrivalSpeed="13.60" duration="205.00" routeLength="2552.65" waitingTime="0.00" waitingCount="0" stopTime="0.00" timeLoss="34.02" rerouteNo="0" devices="tripinfo_54" vType="DEFAULT_VEHTYPE" speedFactor="1.00" vaporized=""/>
    <tripinfo id="35" depart="70.00" departLane="-132363064#1_0" departPos="5.10" departSpeed="0.00" departDelay="0.00" arrival="318.00" arrivalLane="41379357#3_0" arrivalPos="97.77" arrivalSpeed="22.33" duration="248.00" routeLength="4252.95" waitingTime="0.00" waitingCount="0" stopTime="0.00" timeLoss="54.97" rerouteNo="0" devices="tripinfo_35" vType="DEFAULT_VEHTYPE" speedFactor="1.02" vaporized=""/>
    <tripinfo id="66" depart="135.00" departLane="28069658#1_0" departPos="5.10" departSpeed="0.00" departDelay="3.00" arrival="318.00" arrivalLane="436667629#2_0" arrivalPos="40.82" arrivalSpeed="11.48" duration="183.00" routeLength="2753.41" waitingTime="0.00" waitingCount="0" stopTime="0.00" timeLoss="36.65" rerouteNo="0" devices="tripinfo_66" vType="DEFAULT_VEHTYPE" speedFactor="0.91" vaporized=""/>
    <tripinfo id="93" depart="186.00" departLane="27191050#12_0" departPos="0.24" departSpeed="0.00" departDelay="0.00" arrival="321.00" arrivalLane="-184750308#3_0" arrivalPos="0.20" arrivalSpeed="2.60" duration="135.00" routeLength="2293.41" waitingTime="1.00" waitingCount="1" stopTime="0.00" timeLoss="33.59" rerouteNo="0" devices="tripinfo_93" vType="DEFAULT_VEHTYPE" speedFactor="0.92" vaporized=""/>
    <tripinfo id="24" depart="48.00" departLane="131993095#5_0" departPos="5.10" departSpeed="0.00" departDelay="0.00" arrival="325.00" arrivalLane="-325440947#2_0" arrivalPos="284.41" arrivalSpeed="10.32" duration="277.00" routeLength="3641.69" waitingTime="0.00" waitingCount="0" stopTime="0.00" timeLoss="40.15" rerouteNo="0" devices="tripinfo_24" vType="DEFAULT_VEHTYPE" speedFactor="0.83" vaporized=""/>
    <tripinfo id="26" depart="52.00" departLane="-156020181#8_0" departPos="5.10" departSpeed="0.00" departDelay="0.00" arrival="328.00" arrivalLane="380543970#1_0" arrivalPos="155.35" arrivalSpeed="11.82" duration="276.00" routeLength="4240.30" waitingTime="0.00" waitingCount="0" stopTime="0.00" timeLoss="62.80" rerouteNo="0" devices="tripinfo_26" vType="DEFAULT_VEHTYPE" speedFactor="0.92" vaporized=""/>
    <tripinfo id="115" depart="230.00" departLane="-1084027865_0" departPos="5.10" departSpeed="0.00" departDelay="0.00" arrival="331.00" arrivalLane="-132363057#0_0" arrivalPos="30.70" arrivalSpeed="9.97" duration="101.00" routeLength="1046.19" waitingTime="0.00" waitingCount="0" stopTime="0.00" timeLoss="21.93" rerouteNo="0" devices="tripinfo_115" vType="DEFAULT_VEHTYPE" speedFactor="0.92" vaporized=""/>
    <tripinfo id="88" depart="176.00" departLane="-1090070993_0" departPos="5.10" departSpeed="0.00" departDelay="0.00" arrival="332.00" arrivalLane="1041902165#0_0" arrivalPos="0.20" arrivalSpeed="7.05" duration="156.00" routeLength="1799.44" waitingTime="0.00" waitingCount="0" stopTime="0.00" timeLoss="26.33" rerouteNo="0" devices="tripinfo_88" vType="DEFAULT_VEHTYPE" speedFactor="1.01" vaporized=""/>
    <tripinfo id="130" depart="260.00" departLane="284037697#1_0" departPos="5.10" departSpeed="0.00" departDelay="0.00" arrival="333.00" arrivalLane="313817439#1_0" arrivalPos="190.77" arrivalSpeed="13.63" duration="73.00" routeLength="924.05" waitingTime="0.00" waitingCount="0" stopTime="0.00" timeLoss="19.50" rerouteNo="0" devices="tripinfo_130" vType="DEFAULT_VEHTYPE" speedFactor="1.03" vaporized=""/>
    <tripinfo id="32" depart="64.00" departLane="26515013#0_0" departPos="5.10" departSpeed="0.00" departDelay="0.00" arrival="338.00" arrivalLane="184751278#4_0" arrivalPos="11.11" arrivalSpeed="7.84" duration="274.00" routeLength="4498.92" waitingTime="0.00" waitingCount="0" stopTime="0.00" timeLoss="67.96" rerouteNo="0" devices="tripinfo_32" vType="DEFAULT_VEHTYPE" speedFactor="1.01" vaporized=""/>
    <tripinfo id="17" depart="34.00" departLane="-322197513#1_0" departPos="5.10" departSpeed="0.00" departDelay="0.00" arrival="340.00" arrivalLane="1154699531_0" arrivalPos="51.88" arrivalSpeed="12.21" duration="306.00" routeLength="4642.27" waitingTime="0.00" waitingCount="0" stopTime="0.00" timeLoss="64.42" rerouteNo="0" devices="tripinfo_17" vType="DEFAULT_VEHTYPE" speedFactor="0.94" vaporized=""/>
    <tripinfo id="25" depart="50.00" departLane="-313817439#0_0" departPos="5.10" departSpeed="0.00" departDelay="0.00" arrival="344.00" arrivalLane="-156015643#0_0" arrivalPos="139.06" arrivalSpeed="12.01" duration="294.00" routeLength="3780.97" waitingTime="3.00" waitingCount="1" stopTime="0.00" timeLoss="57.19" rerouteNo="0" devices="tripinfo_25" vType="DEFAULT_VEHTYPE" speedFactor="0.87" vaporized=""/>
    <tripinfo id="136" depart="272.00" departLane="132070844#5_0" departPos="5.10" departSpeed="0.00" departDelay="0.00" arrival="345.00" arrivalLane="41379153#1_0" arrivalPos="13.94" arrivalSpeed="7.18" duration="73.00" routeLength="1156.55" waitingTime="0.00" waitingCount="0" stopTime="0.00" timeLoss="26.78" rerouteNo="0" devices="tripinfo_136" vType="DEFAULT_VEHTYPE" speedFactor="1.12" vaporized=""/>