<?xml version="1.0" encoding="UTF-8"?>

<!-- generated on 2026-04-28T09:06:14.677611+05:30 by Eclipse SUMO sumo 1.26.0
<sumoConfiguration xmlns:xsi="http://www.w3.org/2001/XMLSchema-instance" xsi:noNamespaceSchemaLocation="http://sumo.dlr.de/xsd/sumoConfiguration.xsd">

    <input>
        <net-file value="simulation/mangalore.net.xml"/>
        <route-files value="simulation/routes.xml"/>
    </input>

    <output>
        <fcd-output value="simulation/output/fcd.xml"/>
        <summary-output value="simulation/output/summary.xml"/>
        <tripinfo-output value="simulation/output/tripinfo.xml"/>
    </output>

    <time>
        <begin value="0"/>
        <end value="3600"/>
        <step-length value="1"/>
    </time>

    <processing>
        <ignore-route-errors value="true"/>
    </processing>

    <report>
        <no-step-log value="true"/>
    </report>

</sumoConfiguration>
-->

<tripinfos xmlns:xsi="http://www.w3.org/2001/XMLSchema-instance" xsi:noNamespaceSchemaLocation="http://sumo.dlr.de/xsd/tripinfo_file.xsd">
    <tripinfo id="moto_morning.0" depart="0.00" departLane="156015647#3_0" departPos="2.30" departSpeed="13.03" departDelay="0.00" arrival="154.00" arrivalLane="1367397095_0" arrivalPos="0.20" arrivalSpeed="3.69" duration="154.00" routeLength="1701.75" waitingTime="0.00" waitingCount="0" stopTime="0.00" timeLoss="34.39" rerouteNo="1" devices="tripinfo_moto_morning.0 routing_moto_morning.0 fcd_moto_morning.0" vType="motorcycle" speedFactor="0.94" vaporized=""/>
    <tripinfo id="moto_morning.1" depart="9.00" departLane="156015647#3_0" departPos="2.30" departSpeed="15.04" departDelay="0.43" arrival="156.00" arrivalLane="1367397095_0" arrivalPos="0.20" arrivalSpeed="4.26" duration="147.00" routeLength="1701.75" waitingTime="0.00" waitingCount="0" stopTime="0.00" timeLoss="38.71" rerouteNo="1" devices="tripinfo_moto_morning.1 routing_moto_morning.1 fcd_moto_morning.1" vType="motorcycle" speedFactor="1.08" vaporized=""/>
    <tripinfo id="moto_morning.2" depart="18.00" departLane="156015647#3_0" departPos="2.30" departSpeed="14.31" departDelay="0.86" arrival="162.00" arrivalLane="1367397095_0" arrivalPos="0.20" arrivalSpeed="5.68" duration="144.00" routeLength="1701.75" waitingTime="0.00" waitingCount="0" stopTime="0.00" timeLoss="31.58" rerouteNo="1" devices="tripinfo_moto_morning.2 routing_moto_morning.2 fcd_moto_morning.2" vType="motorcycle" speedFactor="1.03" vaporized=""/>
    <tripinfo id="moto_morning.3" depart="26.00" departLane="156015647#3_0" departPos="2.30" departSpeed="14.53" departDelay="0.29" arrival="167.00" arrivalLane="1367397095_0" arrivalPos="0.20" arrivalSpeed="4.74" duration="141.00" routeLength="1701.75" waitingTime="0.00" waitingCount="0" stopTime="0.00" timeLoss="29.69" rerouteNo="1" devices="tripinfo_moto_morning.3 routing_moto_morning.3 fcd_moto_morning.3" vType="motorcycle" speedFactor="1.05" vaporized=""/>
    <tripinfo id="bus_morning.0" depart="0.00" departLane="-157709829_0" departPos="10.60" departSpeed="13.89" departDelay="0.00" arrival="190.00" arrivalLane="-156020180#4_0" arrivalPos="96.49" arrivalSpeed="13.14" duration="190.00" routeLength="2055.96" waitingTime="0.00" waitingCount="0" stopTime="0.00" timeLoss="27.57" rerouteNo="1" devices="tripinfo_bus_morning.0 routing_bus_morning.0 fcd_bus_morning.0" vType="city_bus" speedFactor="1.00" vaporized=""/>
    <tripinfo id="moto_morning.4" depart="35.00" departLane="156015647#3_0" departPos="2.30" departSpeed="12.31" departDelay="0.72" arrival="196.00" arrivalLane="1367397095_0" arrivalPos="0.20" arrivalSpeed="4.20" duration="161.00" routeLength="1781.70" waitingTime="0.00" waitingCount="0" stopTime="0.00" timeLoss="33.53" rerouteNo="1" devices="tripinfo_moto_morning.4 routing_moto_morning.4 fcd_moto_morning.4" vType="motorcycle" speedFactor="0.89" vaporized=""/>
    <tripinfo id="moto_morning.5" depart="43.00" departLane="156015647#3_0" departPos="2.30" departSpeed="11.90" departDelay="0.15" arrival="207.00" arrivalLane="1367397095_0" arrivalPos="0.20" arrivalSpeed="3.98" duration="164.00" routeLength="1781.70" waitingTime="0.00" waitingCount="0" stopTime="0.00" timeLoss="32.62" rerouteNo="1" devices="tripinfo_moto_morning.5 routing_moto_morning.5 fcd_moto_morning.5" vType="motorcycle" speedFactor="0.86" vaporized=""/>
    <tripinfo id="moto_morning.6" depart="52.00" departLane="156015647#3_0" departPos="2.30" departSpeed="15.15" departDelay="0.57" arrival="210.00" arrivalLane="1367397095_0" arrivalPos="0.20" arrivalSpeed="6.12" duration="158.00" routeLength="1781.70" waitingTime="0.00" waitingCount="0" stopTime="0.00" timeLoss="45.27" rerouteNo="1" devices="tripinfo_moto_morning.6 routing_moto_morning.6 fcd_moto_morning.6" vType="motorcycle" speedFactor="1.09" vaporized=""/>
    <tripinfo id="moto_morning.7" depart="60.00" departLane="156015647#3_0" departPos="2.30" departSpeed="14.54" departDelay="0.00" arrival="213.00" arrivalLane="1367397095_0" arrivalPos="0.20" arrivalSpeed="4.54" duration="153.00" routeLength="1781.70" waitingTime="0.00" waitingCount="0" stopTime="0.00" timeLoss="37.90" rerouteNo="1" devices="tripinfo_moto_morning.7 routing_moto_morning.7 fcd_moto_morning.7" vType="motorcycle" speedFactor="1.05" vaporized=""/>
    <tripinfo id="moto_morning.8" depart="69.00" departLane="156015647#3_0" departPos="2.30" departSpeed="15.60" departDelay="0.43" arrival="216.00" arrivalLane="1367397095_0" arrivalPos="0.20" arrivalSpeed="6.57" duration="147.00" routeLength="1701.75" waitingTime="0.00" waitingCount="0" stopTime="0.00" timeLoss="39.21" rerouteNo="1" devices="tripinfo_moto_morning.8 routing_moto_morning.8 fcd_moto_morning.8" vType="motorcycle" speedFactor="1.12" vaporized=""/>
    <tripinfo id="moto_morning.9" depart="78.00" departLane="156015647#3_0" departPos="2.30" departSpeed="13.77" departDelay="0.86" arrival="226.00" arrivalLane="1367397095_0" arrivalPos="0.20" arrivalSpeed="4.03" duration="148.00" routeLength="1701.75" waitingTime="0.00" waitingCount="0" stopTime="0.00" timeLoss="33.00" rerouteNo="1" devices="tripinfo_moto_morning.9 routing_moto_morning.9 fcd_moto_morning.9" vType="motorcycle" speedFactor="0.99" vaporized=""/>
    <tripinfo id="moto_morning.10" depart="86.00" departLane="156015647#3_0" departPos="2.30" departSpeed="12.20" departDelay="0.29" arrival="250.00" arrivalLane="1367397095_0" arrivalPos="0.20" arrivalSpeed="4.08" duration="164.00" routeLength="1781.70" waitingTime="0.00" waitingCount="0" stopTime="0.00" timeLoss="35.74" rerouteNo="1" devices="tripinfo_moto_morning.10 routing_moto_morning.10 fcd_moto_morning.10" vType="motorcycle" speedFactor="0.88" vaporized=""/>
    <tripinfo id="moto_morning.12" depart="103.00" departLane="156015647#3_0" departPos="2.30" departSpeed="16.09" departDelay="0.15" arrival="252.00" arrivalLane="1367397095_0" arrivalPos="0.20" arrivalSpeed="5.36" duration="149.00" routeLength="1701.75" waitingTime="0.00" waitingCount="0" stopTime="0.00" timeLoss="43.84" rerouteNo="1" devices="tripinfo_moto_morning.12 routing_moto_morning.12 fcd_moto_morning.12" vType="motorcycle" speedFactor="1.16" vaporized=""/>
    <tripinfo id="moto_morning.11" depart="95.00" departLane="156015647#3_0" departPos="2.30" departSpeed="13.08" departDelay="0.72" arrival="255.00" arrivalLane="1367397095_0" arrivalPos="0.20" arrivalSpeed="4.76" duration="160.00" routeLength="1781.70" waitingTime="0.00" waitingCount="0" stopTime="0.00" timeLoss="37.01" rerouteNo="1" devices="tripinfo_moto_morning.11 routing_moto_morning.11 fcd_moto_morning.11" vType="motorcycle" speedFactor="0.94" vaporized=""/>
    <tripinfo id="moto_morning.13" depart="112.00" departLane="156015647#3_0" departPos="2.30" departSpeed="14.14" departDelay="0.58" arrival="257.00" arrivalLane="1367397095_0" arrivalPos="0.20" arrivalSpeed="5.31" duration="145.00" routeLength="1701.75" waitingTime="0.00" waitingCount="0" stopTime="0.00" timeLoss="31.36" rerouteNo="1" devices="tripinfo_moto_morning.13 routing_moto_morning.13 fcd_moto_morning.13" vType="motorcycle" speedFactor="1.02" vaporized=""/>
    <tripinfo id="moto_morning.14" depart="120.00" departLane="156015647#3_0" departPos="2.30" departSpeed="13.54" departDelay="0.01" arrival="270.00" arrivalLane="1367397095_0" arrivalPos="0.20" arrivalSpeed="5.20" duration="150.00" routeLength="1701.75" waitingTime="0.00" waitingCount="0" stopTime="0.00" timeLoss="32.37" rerouteNo="1" devices="tripinfo_moto_morning.14 routing_moto_morning.14 fcd_moto_morning.14" vType="motorcycle" speedFactor="0.97" vaporized=""/>
    <tripinfo id="truck_morning.0" depart="0.00" departLane="318725571#3_0" departPos="8.60" departSpeed="9.15" departDelay="0.00" arrival="279.00" arrivalLane="-1095083520_0" arrivalPos="221.23" arrivalSpeed="11.85" duration="279.00" routeLength="2842.56" waitingTime="0.00" waitingCount="0" stopTime="0.00" timeLoss="37.36" rerouteNo="1" devices="tripinfo_truck_morning.0 routing_truck_morning.0 fcd_truck_morning.0" vType="goods_truck" speedFactor="1.01" vaporized=""/>
    <tripinfo id="bus_morning.1" depart="90.00" departLane="-157709829_0" departPos="10.60" departSpeed="13.89" departDelay="0.00" arrival="283.00" arrivalLane="-156020180#4_0" arrivalPos="96.49" arrivalSpeed="12.73" duration="193.00" routeLength="2055.96" waitingTime="0.00" waitingCount="0" stopTime="0.00" timeLoss="30.82" rerouteNo="1" devices="tripinfo_bus_morning.1 routing_bus_morning.1 fcd_bus_morning.1" vType="city_bus" speedFactor="1.00" vaporized=""/>
    <tripinfo id="moto_morning.15" depart="129.00" departLane="156015647#3_0" departPos="2.30" departSpeed="11.47" departDelay="0.44" arrival="298.00" arrivalLane="1367397095_0" arrivalPos="0.20" arrivalSpeed="4.75" duration="169.00" routeLength="1781.70" waitingTime="0.00" waitingCount="0" stopTime="0.00" timeLoss="35.10" rerouteNo="1" devices="tripinfo_moto_morning.15 routing_moto_morning.15 fcd_moto_morning.15" vType="motorcycle" speedFactor="0.83" vaporized=""/>
    <tripinfo id="moto_morning.16" depart="138.00" departLane="156015647#3_0" departPos="2.30" departSpeed="12.12" departDelay="0.86" arrival="301.00" arrivalLane="1367397095_0" arrivalPos="0.20" arrivalSpeed="3.99" duration="163.00" routeLength="1781.70" waitingTime="0.00" waitingCount="0" stopTime="0.00" timeLoss="34.12" rerouteNo="1" devices="tripinfo_moto_morning.16 routing_moto_morning.16 fcd_moto_morning.16" vType="motorcycle" speedFactor="0.87" vaporized=""/>
    <tripinfo id="moto_morning.17" depart="146.00" departLane="156015647#3_0" departPos="2.30" departSpeed="13.18" departDelay="0.29" arrival="304.00" arrivalLane="1367397095_0" arrivalPos="0.20" arrivalSpeed="4.23" duration="158.00" routeLength="1781.70" waitingTime="0.00" waitingCount="0" stopTime="0.00" timeLoss="35.33" rerouteNo="1" devices="tripinfo_moto_morning.17 routing_moto_morning.17 fcd_moto_morning.17" vType="motorcycle" speedFactor="0.95" vaporized=""/>
    <tripinfo id="moto_morning.18" depart="155.00" departLane="156015647#3_0" departPos="2.30" departSpeed="15.72" departDelay="0.72" arrival="306.00" arrivalLane="1367397095_0" arrivalPos="0.20" arrivalSpeed="6.36" duration="151.00" routeLength="1701.75" waitingTime="1.00" waitingCount="1" stopTime="0.00" timeLoss="43.57" rerouteNo="1" devices="tripinfo_moto_morning.18 routing_moto_morning.18 fcd_moto_morning.18" vType="motorcycle" speedFactor="1.13" vaporized=""/>
    <tripinfo id="moto_morning.19" depart="163.00" departLane="156015647#3_0" departPos="2.30" departSpeed="16.37" departDelay="0.15" arrival="308.00" arrivalLane="1367397095_0" arrivalPos="0.20" arrivalSpeed="5.86" duration="145.00" routeLength="1701.75" waitingTime="0.00" waitingCount="0" stopTime="0.00" timeLoss="39.89" rerouteNo="1" devices="tripinfo_moto_morning.19 routing_moto_morning.19 fcd_moto_morning.19" vType="motorcycle" speedFactor="1.18" vaporized=""/>
    <tripinfo id="moto_morning.20" depart="172.00" departLane="156015647#3_0" departPos="2.30" departSpeed="16.03" departDelay="0.58" arrival="310.00" arrivalLane="1367397095_0" arrivalPos="0.20" arrivalSpeed="6.62" duration="138.00" routeLength="1701.75" waitingTime="0.00" waitingCount="0" stopTime="0.00" timeLoss="32.14" rerouteNo="1" devices="tripinfo_moto_morning.20 routing_moto_morning.20 fcd_moto_morning.20" vType="motorcycle" speedFactor="1.15" vaporized=""/>
    <tripinfo id="moto_morning.21" depart="180.00" departLane="156015647#3_0" departPos="2.30" departSpeed="16.28" departDelay="0.01" arrival="314.00" arrivalLane="1367397095_0" arrivalPos="0.20" arrivalSpeed="6.62" duration="134.00" routeLength="1701.75" waitingTime="0.00" waitingCount="0" stopTime="0.00" timeLoss="29.75" rerouteNo="1" devices="tripinfo_moto_morning.21 routing_moto_morning.21 fcd_moto_morning.21" vType="motorcycle" speedFactor="1.17" vaporized=""/>
    <tripinfo id="moto_morning.22" depart="189.00" departLane="156015647#3_0" departPos="2.30" departSpeed="13.82" departDelay="0.44" arrival="332.00" arrivalLane="1367397095_0" arrivalPos="0.20" arrivalSpeed="5.68" duration="143.00" routeLength="1701.75" waitingTime="0.00" waitingCount="0" stopTime="0.00" timeLoss="27.48" rerouteNo="1" devices="tripinfo_moto_morning.22 routing_moto_morning.22 fcd_moto_morning.22" vType="motorcycle" speedFactor="0.99" vaporized=""/>
    <tripinfo id="moto_morning.23" depart="198.00" departLane="156015647#3_0" departPos="2.30" departSpeed="14.16" departDelay="0.87" arrival="344.00" arrivalLane="1367397095_0" arrivalPos="0.20" arrivalSpeed="5.18" duration="146.00" routeLength="1701.75" waitingTime="0.00" waitingCount="0" stopTime="0.00" timeLoss="32.98" rerouteNo="1" devices="tripinfo_moto_morning.23 routing_moto_morning.23 fcd_moto_morning.23" vType="motorcycle" speedFactor="1.02" vaporized=""/>
    <tripinfo id="moto_morning.24" depart="206.00" departLane="156015647#3_0" departPos="2.30" departSpeed="16.39" departDelay="0.30" arrival="346.00" arrivalLane="1367397095_0" arrivalPos="0.20" arrivalSpeed="6.33" duration="140.00" routeLength="1701.75" waitingTime="0.00" waitingCount="0" stopTime="0.00" timeLoss="36.08" rerouteNo="1" devices="tripinfo_moto_morning.24 routing_moto_morning.24 fcd_moto_morning.24" vType="motorcycle" speedFactor="1.18" vaporized=""/>
    <tripinfo id="moto_morning.25" depart="215.00" departLane="156015647#3_0" departPos="2.30" departSpeed="15.31" departDelay="0.73" arrival="349.00" arrivalLane="1367397095_0" arrivalPos="0.20" arrivalSpeed="5.39" duration="134.00" routeLength="1701.75" waitingTime="0.00" waitingCount="0" stopTime="0.00" timeLoss="26.35" rerouteNo="1" devices="tripinfo_moto_morning.25 routing_moto_morning.25 fcd_moto_morning.25" vType="motorcycle" speedFactor="1.10" vaporized=""/>
    <tripinfo id="moto_morning.26" depart="223.00" departLane="156015647#3_0" departPos="2.30" departSpeed="14.31" departDelay="0.15" arrival="366.00" arrivalLane="1367397095_0" arrivalPos="0.20" arrivalSpeed="4.95" duration="143.00" routeLength="1701.75" waitingTime="0.00" waitingCount="0" stopTime="0.00" timeLoss="29.41" rerouteNo="1" devices="tripinfo_moto_morning.26 routing_moto_morning.26 fcd_moto_morning.26" vType="motorcycle" speedFactor="1.03" vaporized=""/>
    <tripinfo id="bus_morning.2" depart="180.00" departLane="-157709829_0" departPos="10.60" departSpeed="13.89" departDelay="0.00" arrival="369.00" arrivalLane="-156020180#4_0" arrivalPos="96.49" arrivalSpeed="11.98" duration="189.00" routeLength="2055.96" waitingTime="0.00" waitingCount="0" stopTime="0.00" timeLoss="28.10" rerouteNo="1" devices="tripinfo_bus_morning.2 routing_bus_morning.2 fcd_bus_morning.2" vType="city_bus" speedFactor="1.00" vaporized=""/>
    <tripinfo id="moto_morning.28" depart="240.00" departLane="156015647#3_0" departPos="2.30" departSpeed="14.42" departDelay="0.01" arrival="386.00" arrivalLane="1367397095_0" arrivalPos="0.20" arrivalSpeed="4.41" duration="146.00" routeLength="1759.71" waitingTime="0.00" waitingCount="0" stopTime="0.00" timeLoss="27.45" rerouteNo="1" devices="tripinfo_moto_morning.28 routing_moto_morning.28 fcd_moto_morning.28" vType="motorcycle" speedFactor="1.04" vaporized=""/>
    <tripinfo id="moto_morning.27" depart="232.00" departLane="156015647#3_0" departPos="2.30" departSpeed="13.29" departDelay="0.58" arrival="390.00" arrivalLane="1367397095_0" arrivalPos="0.20" arrivalSpeed="5.32" duration="158.00" routeLength="1781.70" waitingTime="0.00" waitingCount="0" stopTime="0.00" timeLoss="36.23" rerouteNo="1" devices="tripinfo_moto_morning.27 routing_moto_morning.27 fcd_moto_morning.27" vType="motorcycle" speedFactor="0.96" vaporized=""/>
    <tripinfo id="moto_morning.29" depart="249.00" departLane="156015647#3_0" departPos="2.30" departSpeed="15.11" departDelay="0.44" arrival="394.00" arrivalLane="1367397095_0" arrivalPos="0.20" arrivalSpeed="5.11" duration="145.00" routeLength="1759.71" waitingTime="0.00" waitingCount="0" stopTime="0.00" timeLoss="30.96" rerouteNo="1" devices="tripinfo_moto_morning.29 routing_moto_morning.29 fcd_moto_morning.29" vType="motorcycle" speedFactor="1.09" vaporized=""/>
    <tripinfo id="truck_morning.1" depart="120.00" departLane="318725571#3_0" departPos="8.60" departSpeed="9.15" departDelay="0.00" arrival="400.00" arrivalLane="-1095083520_0" arrivalPos="221.23" arrivalSpeed="11.94" duration="280.00" routeLength="2842.56" waitingTime="0.00" waitingCount="0" stopTime="0.00" timeLoss="37.82" rerouteNo="1" devices="tripinfo_truck_morning.1 routing_truck_morning.1 fcd_truck_morning.1" vType="goods_truck" speedFactor="0.94" vaporized=""/>
    <tripinfo id="moto_morning.30" depart="258.00" departLane="156015647#3_0" departPos="2.30" departSpeed="13.85" departDelay="0.87" arrival="409.00" arrivalLane="1367397095_0" arrivalPos="0.20" arrivalSpeed="5.53" duration="151.00" routeLength="1759.71" waitingTime="0.00" waitingCount="0" stopTime="0.00" timeLoss="29.98" rerouteNo="1" devices="tripinfo_moto_morning.30 routing_moto_morning.30 fcd_moto_morning.30" vType="motorcycle" speedFactor="1.00" vaporized=""/>
    <tripinfo id="moto_morning.33" depart="283.00" departLane="156015647#3_0" departPos="2.30" departSpeed="16.24" departDelay="0.16" arrival="426.00" arrivalLane="1367397095_0" arrivalPos="0.20" arrivalSpeed="6.41" duration="143.00" routeLength="1679.76" waitingTime="0.00" waitingCount="0" stopTime="0.00" timeLoss="38.33" rerouteNo="1" devices="tripinfo_moto_morning.33 routing_moto_morning.33 fcd_moto_morning.33" vType="motorcycle" speedFactor="1.17" vaporized=""/>
    <tripinfo id="moto_morning.31" depart="266.00" departLane="156015647#3_0" departPos="2.30" departSpeed="12.18" departDelay="0.30" arrival="428.00" arrivalLane="1367397095_0" arrivalPos="0.20" arrivalSpeed="5.19" duration="162.00" routeLength="1781.70" waitingTime="0.00" waitingCount="0" stopTime="0.00" timeLoss="34.90" rerouteNo="1" devices="tripinfo_moto_morning.31 routing_moto_morning.31 fcd_moto_morning.31" vType="motorcycle" speedFactor="0.88" vaporized=""/>
    <tripinfo id="moto_morning.34" depart="292.00" departLane="156015647#3_0" departPos="2.30" departSpeed="14.12" departDelay="0.59" arrival="440.00" arrivalLane="1367397095_0" arrivalPos="0.20" arrivalSpeed="4.76" duration="148.00" routeLength="1679.76" waitingTime="0.00" waitingCount="0" stopTime="0.00" timeLoss="32.00" rerouteNo="1" devices="tripinfo_moto_morning.34 routing_moto_morning.34 fcd_moto_morning.34" vType="motorcycle" speedFactor="1.02" vaporized=""/>
    <tripinfo id="moto_morning.32" depart="275.00" departLane="156015647#3_0" departPos="2.30" departSpeed="11.81" departDelay="0.73" arrival="443.00" arrivalLane="1367397095_0" arrivalPos="0.20" arrivalSpeed="3.30" duration="168.00" routeLength="1781.70" waitingTime="0.00" waitingCount="0" stopTime="0.00" timeLoss="36.84" rerouteNo="1" devices="tripinfo_moto_morning.32 routing_moto_morning.32 fcd_moto_morning.32" vType="motorcycle" speedFactor="0.85" vaporized=""/>
    <tripinfo id="moto_morning.35" depart="300.00" departLane="156015647#3_0" departPos="2.30" departSpeed="13.93" departDelay="0.02" arrival="450.00" arrivalLane="1367397095_0" arrivalPos="0.20" arrivalSpeed="5.37" duration="150.00" routeLength="1679.76" waitingTime="0.00" waitingCount="0" stopTime="0.00" timeLoss="33.53" rerouteNo="1" devices="tripinfo_moto_morning.35 routing_moto_morning.35 fcd_moto_morning.35" vType="motorcycle" speedFactor="1.00" vaporized=""/>
    <tripinfo id="moto_morning.36" depart="309.00" departLane="156015647#3_0" departPos="2.30" departSpeed="13.83" departDelay="0.44" arrival="456.00" arrivalLane="1367397095_0" arrivalPos="0.20" arrivalSpeed="5.69" duration="147.00" routeLength="1679.76" waitingTime="0.00" waitingCount="0" stopTime="0.00" timeLoss="29.49" rerouteNo="1" devices="tripinfo_moto_morning.36 routing_moto_morning.36 fcd_moto_morning.36" vType="motorcycle" speedFactor="1.00" vaporized=""/>
    <tripinfo id="auto_morning.0" depart="0.00" departLane="131993103#2_0" departPos="2.90" departSpeed="11.00" departDelay="0.00" arrival="460.00" arrivalLane="-1047437082_0" arrivalPos="283.29" arrivalSpeed="10.71" duration="460.00" routeLength="4378.96" waitingTime="1.00" waitingCount="1" stopTime="0.00" timeLoss="46.15" rerouteNo="1" devices="tripinfo_auto_morning.0 routing_auto_morning.0 fcd_auto_morning.0" vType="autorickshaw" speedFactor="1.03" vaporized=""/>
    <tripinfo id="bus_morning.3" depart="270.00" departLane="-157709829_0" departPos="10.60" departSpeed="13.89" departDelay="0.00" arrival="461.00" arrivalLane="-156020180#4_0" arrivalPos="96.49" arrivalSpeed="12.83" duration="191.00" routeLength="2055.96" waitingTime="0.00" waitingCount="0" stopTime="0.00" timeLoss="29.56" rerouteNo="1" devices="tripinfo_bus_morning.3 routing_bus_morning.3 fcd_bus_morning.3" vType="city_bus" speedFactor="1.00" vaporized=""/>
    <tripinfo id="moto_morning.37" depart="318.00" departLane="156015647#3_0" departPos="2.30" departSpeed="12.49" departDelay="0.87" arrival="482.00" arrivalLane="1367397095_0" arrivalPos="0.20" arrivalSpeed="3.38" duration="164.00" routeLength="1759.71" waitingTime="0.00" waitingCount="0" stopTime="0.00" timeLoss="33.72" rerouteNo="1" devices="tripinfo_moto_morning.37 routing_moto_morning.37 fcd_moto_morning.37" vType="motorcycle" speedFactor="0.90" vaporized=""/>
    <tripinfo id="moto_morning.38" depart="326.00" departLane="156015647#3_0" departPos="2.30" departSpeed="14.22" departDelay="0.30" arrival="484.00" arrivalLane="1367397095_0" arrivalPos="0.20" arrivalSpeed="5.73" duration="158.00" routeLength="1679.76" waitingTime="0.00" waitingCount="0" stopTime="0.00" timeLoss="42.65" rerouteNo="1" devices="tripinfo_moto_morning.38 routing_moto_morning.38 fcd_moto_morning.38" vType="motorcycle" speedFactor="1.02" vaporized=""/>
    <tripinfo id="moto_morning.39" depart="335.00" departLane="156015647#3_0" departPos="2.30" departSpeed="13.47" departDelay="0.73" arrival="487.00" arrivalLane="1367397095_0" arrivalPos="0.20" arrivalSpeed="3.69" duration="152.00" routeLength="1759.71" waitingTime="0.00" waitingCount="0" stopTime="0.00" timeLoss="29.05" rerouteNo="1" devices="tripinfo_moto_morning.39 routing_moto_morning.39 fcd_moto_morning.39" vType="motorcycle" speedFactor="0.97" vaporized=""/>
    <tripinfo id="moto_morning.40" depart="343.00" departLane="156015647#3_0" departPos="2.30" departSpeed="15.55" departDelay="0.16" arrival="489.00" arrivalLane="1367397095_0" arrivalPos="0.20" arrivalSpeed="6.23" duration="146.00" routeLength="1759.71" waitingTime="0.00" waitingCount="0" stopTime="0.00" timeLoss="34.60" rerouteNo="1" devices="tripinfo_moto_morning.40 routing_moto_morning.40 fcd_moto_morning.40" vType="motorcycle" speedFactor="1.12" vaporized=""/>
    <tripinfo id="auto_morning.1" depart="20.00" departLane="131993103#2_0" departPos="2.90" departSpeed="11.00" departDelay="0.00" arrival="491.00" arrivalLane="-1047437082_0" arrivalPos="283.29" arrivalSpeed="10.66" duration="471.00" routeLength="4378.96" waitingTime="1.00" waitingCount="1" stopTime="0.00" timeLoss="47.23" rerouteNo="1" devices="tripinfo_auto_morning.1 routing_auto_morning.1 fcd_auto_morning.1" vType="autorickshaw" speedFactor="0.92" vaporized=""/>
    <tripinfo id="moto_morning.41" depart="352.00" departLane="156015647#3_0" departPos="2.30" departSpeed="14.11" departDelay="0.59" arrival="500.00" arrivalLane="1367397095_0" arrivalPos="0.20" arrivalSpeed="4.34" duration="148.00" routeLength="1759.71" waitingTime="0.00" waitingCount="0" stopTime="0.00" timeLoss="29.20" rerouteNo="1" devices="tripinfo_moto_morning.41 routing_moto_morning.41 fcd_moto_morning.41" vType="motorcycle" speedFactor="1.02" vaporized=""/>
    <tripinfo id="auto_morning.2" depart="40.00" departLane="131993103#2_0" departPos="2.90" departSpeed="11.00" departDelay="0.00" arrival="503.00" arrivalLane="-1047437082_0" arrivalPos="283.29" arrivalSpeed="10.67" duration="463.00" routeLength="4378.96" waitingTime="1.00" waitingCount="1" stopTime="0.00" timeLoss="43.63" rerouteNo="1" devices="tripinfo_auto_morning.2 routing_auto_morning.2 fcd_auto_morning.2" vType="autorickshaw" speedFactor="0.97" vaporized=""/>
    <tripinfo id="moto_morning.42" depart="360.00" departLane="156015647#3_0" departPos="2.30" departSpeed="13.02" departDelay="0.02" arrival="519.00" arrivalLane="1367397095_0" arrivalPos="0.20" arrivalSpeed="4.99" duration="159.00" routeLength="1759.71" waitingTime="0.00" waitingCount="0" stopTime="0.00" timeLoss="34.40" rerouteNo="1" devices="tripinfo_moto_morning.42 routing_moto_morning.42 fcd_moto_morning.42" vType="motorcycle" speedFactor="0.94" vaporized=""/>
    <tripinfo id="auto_morning.3" depart="60.00" departLane="131993103#2_0" departPos="2.90" departSpeed="11.00" departDelay="0.00" arrival="520.00" arrivalLane="-1047437082_0" arrivalPos="283.29" arrivalSpeed="10.02" duration="460.00" routeLength="4378.96" waitingTime="0.00" waitingCount="0" stopTime="0.00" timeLoss="45.53" rerouteNo="1" devices="tripinfo_auto_morning.3 routing_auto_morning.3 fcd_auto_morning.3" vType="autorickshaw" speedFactor="1.01" vaporized=""/>
    <tripinfo id="truck_morning.2" depart="240.00" departLane="318725571#3_0" departPos="8.60" departSpeed="9.15" departDelay="0.00" arrival="520.00" arrivalLane="-1095083520_0" arrivalPos="221.23" arrivalSpeed="11.89" duration="280.00" routeLength="2842.56" waitingTime="0.00" waitingCount="0" stopTime="0.00" timeLoss="38.27" rerouteNo="1" devices="tripinfo_truck_morning.2 routing_truck_morning.2 fcd_truck_morning.2" vType="goods_truck" speedFactor="1.02" vaporized=""/>
    <tripinfo id="moto_morning.43" depart="369.00" departLane="156015647#3_0" departPos="2.30" departSpeed="12.60" departDelay="0.45" arrival="531.00" arrivalLane="1367397095_0" arrivalPos="0.20" arrivalSpeed="5.20" duration="162.00" routeLength="1759.71" waitingTime="0.00" waitingCount="0" stopTime="0.00" timeLoss="32.77" rerouteNo="1" devices="tripinfo_moto_morning.43 routing_moto_morning.43 fcd_moto_morning.43" vType="motorcycle" speedFactor="0.91" vaporized=""/>
    <tripinfo id="moto_morning.44" depart="378.00" departLane="156015647#3_0" departPos="2.30" departSpeed="12.70" departDelay="0.88" arrival="538.00" arrivalLane="1367397095_0" arrivalPos="0.20" arrivalSpeed="4.41" duration="160.00" routeLength="1759.71" waitingTime="0.00" waitingCount="0" stopTime="0.00" timeLoss="30.42" rerouteNo="1" devices="tripinfo_moto_morning.44 routing_moto_morning.44 fcd_moto_morning.44" vType="motorcycle" speedFactor="0.91" vaporized=""/>
    <tripinfo id="moto_morning.45" depart="386.00" departLane="156015647#3_0" departPos="2.30" departSpeed="14.20" departDelay="0.31" arrival="540.00" arrivalLane="1367397095_0" arrivalPos="0.20" arrivalSpeed="5.68" duration="154.00" routeLength="1679.76" waitingTime="1.00" waitingCount="1" stopTime="0.00" timeLoss="38.67" rerouteNo="1" devices="tripinfo_moto_morning.45 routing_moto_morning.45 fcd_moto_morning.45" vType="motorcycle" speedFactor="1.02" vaporized=""/>
    <tripinfo id="auto_morning.4" depart="80.00" departLane="131993103#2_0" departPos="2.90" departSpeed="11.00" departDelay="0.00" arrival="543.00" arrivalLane="-1047437082_0" arrivalPos="283.29" arrivalSpeed="10.15" duration="463.00" routeLength="4378.96" waitingTime="1.00" waitingCount="1" stopTime="0.00" timeLoss="43.74" rerouteNo="1" devices="tripinfo_auto_morning.4 routing_auto_morning.4 fcd_auto_morning.4" vType="autorickshaw" speedFactor="0.96" vaporized=""/>
    <tripinfo id="moto_morning.46" depart="395.00" departLane="156015647#3_0" departPos="2.30" departSpeed="14.21" departDelay="0.73" arrival="543.00" arrivalLane="1367397095_0" arrivalPos="0.20" arrivalSpeed="3.86" duration="148.00" routeLength="1679.76" waitingTime="0.00" waitingCount="0" stopTime="0.00" timeLoss="32.71" rerouteNo="1" devices="tripinfo_moto_morning.46 routing_moto_morning.46 fcd_moto_morning.46" vType="motorcycle" speedFactor="1.02" vaporized=""/>
    <tripinfo id="bus_morning.4" depart="360.00" departLane="-157709829_0" departPos="10.60" departSpeed="13.89" departDelay="0.00" arrival="552.00" arrivalLane="-156020180#4_0" arrivalPos="96.49" arrivalSpeed="13.06" duration="192.00" routeLength="2055.96" waitingTime="0.00" waitingCount="0" stopTime="0.00" timeLoss="30.74" rerouteNo="1" devices="tripinfo_bus_morning.4 routing_bus_morning.4 fcd_bus_morning.4" vType="city_bus" speedFactor="1.00" vaporized=""/>
    <tripinfo id="moto_morning.47" depart="403.00" departLane="156015647#3_0" departPos="2.30" departSpeed="13.06" departDelay="0.16" arrival="561.00" arrivalLane="1367397095_0" arrivalPos="0.20" arrivalSpeed="5.29" duration="158.00" routeLength="1679.76" waitingTime="0.00" waitingCount="0" stopTime="0.00" timeLoss="36.32" rerouteNo="1" devices="tripinfo_moto_morning.47 routing_moto_morning.47 fcd_moto_morning.47" vType="motorcycle" speedFactor="0.94" vaporized=""/>